HEADER
"PSFversion" "1.00"
"CLKv" "clkv"
"Vsupplyv" "vsupplyv"
"Vgroundv" "vgroundv"
"Q'v" "q__v"
"Qv" "qv"
"Dv" "dv"
