HEADER
"PSFversion" "1.00"
"Inv" "inv"
"V1v" "v1v"
"VccDCv" "vccdcv"
"Q'v" "q__v"
"Qv" "qv"
"Vrefv" "vrefv"
"gnd!v" "0v"
