HEADER
"PSFversion" "1.00"
"Vgroundv" "vgroundv"
"Vsupplyv" "vsupplyv"
"Outv" "outv"
"Av" "av"
