HEADER
"PSFversion" "1.00"
"Vsupplyv" "vsupplyv"
"Av" "av"
"Bv" "bv"
"Vgroundv" "vgroundv"
"Outv" "outv"
