HEADER
"PSFversion" "1.00"
"__NEXT_FILE__" "abat_invchain_latched"
